
Linearized model: Predictions were generated on 06-Mar-2024 at 00:15:28 using OpenFAST, compiled on Mar  6 2024 at 00:00:41 as a 64-bit application using double precision at commit -128-NOTFOUND
 linked with  NWTC Subroutine Library; ElastoDyn; BeamDyn; ServoDyn

Description from the FAST input file: FAST Certification Test #26: NREL 5.0 MW Baseline Wind Turbine (Onshore)

Simulation information:
   Simulation time:                     1.0005 s
   Rotor Speed:                         1.2670 rad/s
   Azimuth:                             1.2678 rad
   Wind Speed:                          0.0000 m/s
   Number of continuous states:        60
   Number of discrete states:           0
   Number of constraint states:         0
   Number of inputs:                    0
   Number of outputs:                  12
   Jacobians included in this file?    No

Order of continuous states:
   Row/Column Operating Point                                                   Rotating Frame? Derivative Order Description
   ---------- ---------------                                                   --------------- ---------------- -----------
          1    2.312849306130E-003                                                     T               2         finite element node 2 (number of elements = 1; element order = 5) translational displacement in X, m
          2    1.161379379285E-003                                                     T               2         finite element node 2 (number of elements = 1; element order = 5) translational displacement in Y, m
          3    6.925499871800E-004                                                     T               2         finite element node 2 (number of elements = 1; element order = 5) translational displacement in Z, m
          4   -2.577706071569E-004                                                     T               2         finite element node 2 (number of elements = 1; element order = 5) rotational displacement in X, rad
          5    6.256719867713E-004                                                     T               2         finite element node 2 (number of elements = 1; element order = 5) rotational displacement in Y, rad
          6    7.752424548295E-006                                                     T               2         finite element node 2 (number of elements = 1; element order = 5) rotational displacement in Z, rad
          7    3.153561487456E-002                                                     T               2         finite element node 3 (number of elements = 1; element order = 5) translational displacement in X, m
          8    9.971669496109E-003                                                     T               2         finite element node 3 (number of elements = 1; element order = 5) translational displacement in Y, m
          9    3.371705319199E-003                                                     T               2         finite element node 3 (number of elements = 1; element order = 5) translational displacement in Z, m
         10   -7.791817287506E-004                                                     T               2         finite element node 3 (number of elements = 1; element order = 5) rotational displacement in X, rad
         11    3.429412307477E-003                                                     T               2         finite element node 3 (number of elements = 1; element order = 5) rotational displacement in Y, rad
         12    7.037531122152E-005                                                     T               2         finite element node 3 (number of elements = 1; element order = 5) rotational displacement in Z, rad
         13    1.363670275729E-001                                                     T               2         finite element node 4 (number of elements = 1; element order = 5) translational displacement in X, m
         14    2.710624009659E-002                                                     T               2         finite element node 4 (number of elements = 1; element order = 5) translational displacement in Y, m
         15    8.166652506344E-003                                                     T               2         finite element node 4 (number of elements = 1; element order = 5) translational displacement in Z, m
         16   -9.595006369071E-004                                                     T               2         finite element node 4 (number of elements = 1; element order = 5) rotational displacement in X, rad
         17    8.414347667754E-003                                                     T               2         finite element node 4 (number of elements = 1; element order = 5) rotational displacement in Y, rad
         18    1.591047496924E-004                                                     T               2         finite element node 4 (number of elements = 1; element order = 5) rotational displacement in Z, rad
         19    2.942877507133E-001                                                     T               2         finite element node 5 (number of elements = 1; element order = 5) translational displacement in X, m
         20    4.219148734713E-002                                                     T               2         finite element node 5 (number of elements = 1; element order = 5) translational displacement in Y, m
         21    1.228297882825E-002                                                     T               2         finite element node 5 (number of elements = 1; element order = 5) translational displacement in Z, m
         22   -9.994306496027E-004                                                     T               2         finite element node 5 (number of elements = 1; element order = 5) rotational displacement in X, rad
         23    1.254043531046E-002                                                     T               2         finite element node 5 (number of elements = 1; element order = 5) rotational displacement in Y, rad
         24    1.741843472884E-004                                                     T               2         finite element node 5 (number of elements = 1; element order = 5) rotational displacement in Z, rad
         25    3.903798939142E-001                                                     T               2         finite element node 6 (number of elements = 1; element order = 5) translational displacement in X, m
         26    5.014556507788E-002                                                     T               2         finite element node 6 (number of elements = 1; element order = 5) translational displacement in Y, m
         27    1.291962546326E-002                                                     T               2         finite element node 6 (number of elements = 1; element order = 5) translational displacement in Z, m
         28   -1.053556700723E-003                                                     T               2         finite element node 6 (number of elements = 1; element order = 5) rotational displacement in X, rad
         29    1.347457320710E-002                                                     T               2         finite element node 6 (number of elements = 1; element order = 5) rotational displacement in Y, rad
         30    1.885010122717E-004                                                     T               2         finite element node 6 (number of elements = 1; element order = 5) rotational displacement in Z, rad
         31   -2.377958129453E-002                                                     T               2         First time derivative of finite element node 2 (number of elements = 1; element order = 5) translational displacement in X, m/s
         32   -1.103655745982E+001                                                     T               2         First time derivative of finite element node 2 (number of elements = 1; element order = 5) translational displacement in Y, m/s
         33    2.405256947258E-003                                                     T               2         First time derivative of finite element node 2 (number of elements = 1; element order = 5) translational displacement in Z, m/s
         34    1.264928449894E+000                                                     T               2         First time derivative of finite element node 2 (number of elements = 1; element order = 5) rotational displacement in X, rad/s
         35   -1.851852957302E-004                                                     T               2         First time derivative of finite element node 2 (number of elements = 1; element order = 5) rotational displacement in Y, rad/s
         36   -5.513178516796E-002                                                     T               2         First time derivative of finite element node 2 (number of elements = 1; element order = 5) rotational displacement in Z, rad/s
         37   -2.700452593699E-002                                                     T               2         First time derivative of finite element node 3 (number of elements = 1; element order = 5) translational displacement in X, m/s
         38   -2.968149544188E+001                                                     T               2         First time derivative of finite element node 3 (number of elements = 1; element order = 5) translational displacement in Y, m/s
         39    1.337358136776E-002                                                     T               2         First time derivative of finite element node 3 (number of elements = 1; element order = 5) translational displacement in Z, m/s
         40    1.262089753135E+000                                                     T               2         First time derivative of finite element node 3 (number of elements = 1; element order = 5) rotational displacement in X, rad/s
         41   -5.068843922546E-004                                                     T               2         First time derivative of finite element node 3 (number of elements = 1; element order = 5) rotational displacement in Y, rad/s
         42   -5.486712871027E-002                                                     T               2         First time derivative of finite element node 3 (number of elements = 1; element order = 5) rotational displacement in Z, rad/s
         43   -5.668225648165E-002                                                     T               2         First time derivative of finite element node 4 (number of elements = 1; element order = 5) translational displacement in X, m/s
         44   -5.180175802577E+001                                                     T               2         First time derivative of finite element node 4 (number of elements = 1; element order = 5) translational displacement in Y, m/s
         45    3.492009100246E-002                                                     T               2         First time derivative of finite element node 4 (number of elements = 1; element order = 5) translational displacement in Z, m/s
         46    1.259211410281E+000                                                     T               2         First time derivative of finite element node 4 (number of elements = 1; element order = 5) rotational displacement in X, rad/s
         47   -3.857049861147E-003                                                     T               2         First time derivative of finite element node 4 (number of elements = 1; element order = 5) rotational displacement in Y, rad/s
         48   -5.402868250977E-002                                                     T               2         First time derivative of finite element node 4 (number of elements = 1; element order = 5) rotational displacement in Z, rad/s
         49   -1.651983730867E-001                                                     T               2         First time derivative of finite element node 5 (number of elements = 1; element order = 5) translational displacement in X, m/s
         50   -7.037602137443E+001                                                     T               2         First time derivative of finite element node 5 (number of elements = 1; element order = 5) translational displacement in Y, m/s
         51    5.486134650098E-002                                                     T               2         First time derivative of finite element node 5 (number of elements = 1; element order = 5) translational displacement in Z, m/s
         52    1.257438255041E+000                                                     T               2         First time derivative of finite element node 5 (number of elements = 1; element order = 5) rotational displacement in X, rad/s
         53   -1.159497201060E-002                                                     T               2         First time derivative of finite element node 5 (number of elements = 1; element order = 5) rotational displacement in Y, rad/s
         54   -5.318167337078E-002                                                     T               2         First time derivative of finite element node 5 (number of elements = 1; element order = 5) rotational displacement in Z, rad/s
         55   -2.711599940329E-001                                                     T               2         First time derivative of finite element node 6 (number of elements = 1; element order = 5) translational displacement in X, m/s
         56   -7.946129950312E+001                                                     T               2         First time derivative of finite element node 6 (number of elements = 1; element order = 5) translational displacement in Y, m/s
         57    6.625117022743E-002                                                     T               2         First time derivative of finite element node 6 (number of elements = 1; element order = 5) translational displacement in Z, m/s
         58    1.257153176235E+000                                                     T               2         First time derivative of finite element node 6 (number of elements = 1; element order = 5) rotational displacement in X, rad/s
         59   -1.658172517742E-002                                                     T               2         First time derivative of finite element node 6 (number of elements = 1; element order = 5) rotational displacement in Y, rad/s
         60   -5.300803338717E-002                                                     T               2         First time derivative of finite element node 6 (number of elements = 1; element order = 5) rotational displacement in Z, rad/s

Order of continuous state derivatives:
   Row/Column Operating Point                                                   Rotating Frame? Derivative Order Description
   ---------- ---------------                                                   --------------- ---------------- -----------
          1   -2.377958129453E-002                                                     T               2         First time derivative of finite element node 2 (number of elements = 1; element order = 5) translational displacement in X, m/s
          2   -1.103655745982E+001                                                     T               2         First time derivative of finite element node 2 (number of elements = 1; element order = 5) translational displacement in Y, m/s
          3    2.405256947258E-003                                                     T               2         First time derivative of finite element node 2 (number of elements = 1; element order = 5) translational displacement in Z, m/s
          4    1.264928449894E+000                                                     T               2         First time derivative of finite element node 2 (number of elements = 1; element order = 5) rotational displacement in X, rad/s
          5   -1.851852957302E-004                                                     T               2         First time derivative of finite element node 2 (number of elements = 1; element order = 5) rotational displacement in Y, rad/s
          6   -5.513178516796E-002                                                     T               2         First time derivative of finite element node 2 (number of elements = 1; element order = 5) rotational displacement in Z, rad/s
          7   -2.700452593699E-002                                                     T               2         First time derivative of finite element node 3 (number of elements = 1; element order = 5) translational displacement in X, m/s
          8   -2.968149544188E+001                                                     T               2         First time derivative of finite element node 3 (number of elements = 1; element order = 5) translational displacement in Y, m/s
          9    1.337358136776E-002                                                     T               2         First time derivative of finite element node 3 (number of elements = 1; element order = 5) translational displacement in Z, m/s
         10    1.262089753135E+000                                                     T               2         First time derivative of finite element node 3 (number of elements = 1; element order = 5) rotational displacement in X, rad/s
         11   -5.068843922546E-004                                                     T               2         First time derivative of finite element node 3 (number of elements = 1; element order = 5) rotational displacement in Y, rad/s
         12   -5.486712871027E-002                                                     T               2         First time derivative of finite element node 3 (number of elements = 1; element order = 5) rotational displacement in Z, rad/s
         13   -5.668225648165E-002                                                     T               2         First time derivative of finite element node 4 (number of elements = 1; element order = 5) translational displacement in X, m/s
         14   -5.180175802577E+001                                                     T               2         First time derivative of finite element node 4 (number of elements = 1; element order = 5) translational displacement in Y, m/s
         15    3.492009100246E-002                                                     T               2         First time derivative of finite element node 4 (number of elements = 1; element order = 5) translational displacement in Z, m/s
         16    1.259211410281E+000                                                     T               2         First time derivative of finite element node 4 (number of elements = 1; element order = 5) rotational displacement in X, rad/s
         17   -3.857049861147E-003                                                     T               2         First time derivative of finite element node 4 (number of elements = 1; element order = 5) rotational displacement in Y, rad/s
         18   -5.402868250977E-002                                                     T               2         First time derivative of finite element node 4 (number of elements = 1; element order = 5) rotational displacement in Z, rad/s
         19   -1.651983730867E-001                                                     T               2         First time derivative of finite element node 5 (number of elements = 1; element order = 5) translational displacement in X, m/s
         20   -7.037602137443E+001                                                     T               2         First time derivative of finite element node 5 (number of elements = 1; element order = 5) translational displacement in Y, m/s
         21    5.486134650098E-002                                                     T               2         First time derivative of finite element node 5 (number of elements = 1; element order = 5) translational displacement in Z, m/s
         22    1.257438255041E+000                                                     T               2         First time derivative of finite element node 5 (number of elements = 1; element order = 5) rotational displacement in X, rad/s
         23   -1.159497201060E-002                                                     T               2         First time derivative of finite element node 5 (number of elements = 1; element order = 5) rotational displacement in Y, rad/s
         24   -5.318167337078E-002                                                     T               2         First time derivative of finite element node 5 (number of elements = 1; element order = 5) rotational displacement in Z, rad/s
         25   -2.711599940329E-001                                                     T               2         First time derivative of finite element node 6 (number of elements = 1; element order = 5) translational displacement in X, m/s
         26   -7.946129950312E+001                                                     T               2         First time derivative of finite element node 6 (number of elements = 1; element order = 5) translational displacement in Y, m/s
         27    6.625117022743E-002                                                     T               2         First time derivative of finite element node 6 (number of elements = 1; element order = 5) translational displacement in Z, m/s
         28    1.257153176235E+000                                                     T               2         First time derivative of finite element node 6 (number of elements = 1; element order = 5) rotational displacement in X, rad/s
         29   -1.658172517742E-002                                                     T               2         First time derivative of finite element node 6 (number of elements = 1; element order = 5) rotational displacement in Y, rad/s
         30   -5.300803338717E-002                                                     T               2         First time derivative of finite element node 6 (number of elements = 1; element order = 5) rotational displacement in Z, rad/s
         31   -4.771388318068E-001                                                     T               2         First time derivative of First time derivative of finite element node 2 (number of elements = 1; element order = 5) translational displacement in X, m/s/s
         32    1.012740780860E-002                                                     T               2         First time derivative of First time derivative of finite element node 2 (number of elements = 1; element order = 5) translational displacement in Y, m/s/s
         33   -1.387848869991E+001                                                     T               2         First time derivative of First time derivative of finite element node 2 (number of elements = 1; element order = 5) translational displacement in Z, m/s/s
         34    4.726777249900E-004                                                     T               2         First time derivative of First time derivative of finite element node 2 (number of elements = 1; element order = 5) rotational displacement in X, rad/s/s
         35    1.494277625622E-002                                                     T               2         First time derivative of First time derivative of finite element node 2 (number of elements = 1; element order = 5) rotational displacement in Y, rad/s/s
         36   -2.916984191424E-003                                                     T               2         First time derivative of First time derivative of finite element node 2 (number of elements = 1; element order = 5) rotational displacement in Z, rad/s/s
         37   -1.451605723991E+000                                                     T               2         First time derivative of First time derivative of finite element node 3 (number of elements = 1; element order = 5) translational displacement in X, m/s/s
         38    7.007257992082E-003                                                     T               2         First time derivative of First time derivative of finite element node 3 (number of elements = 1; element order = 5) translational displacement in Y, m/s/s
         39   -3.743333770365E+001                                                     T               2         First time derivative of First time derivative of finite element node 3 (number of elements = 1; element order = 5) translational displacement in Z, m/s/s
         40   -4.421117608078E-003                                                     T               2         First time derivative of First time derivative of finite element node 3 (number of elements = 1; element order = 5) rotational displacement in X, rad/s/s
         41   -8.924142996029E-003                                                     T               2         First time derivative of First time derivative of finite element node 3 (number of elements = 1; element order = 5) rotational displacement in Y, rad/s/s
         42   -3.119174426678E-003                                                     T               2         First time derivative of First time derivative of finite element node 3 (number of elements = 1; element order = 5) rotational displacement in Z, rad/s/s
         43   -2.980237835446E+000                                                     T               2         First time derivative of First time derivative of finite element node 4 (number of elements = 1; element order = 5) translational displacement in X, m/s/s
         44    1.690908481609E-001                                                     T               2         First time derivative of First time derivative of finite element node 4 (number of elements = 1; element order = 5) translational displacement in Y, m/s/s
         45   -6.531085340064E+001                                                     T               2         First time derivative of First time derivative of finite element node 4 (number of elements = 1; element order = 5) translational displacement in Z, m/s/s
         46   -1.496710663505E-002                                                     T               2         First time derivative of First time derivative of finite element node 4 (number of elements = 1; element order = 5) rotational displacement in X, rad/s/s
         47   -1.211825751117E-002                                                     T               2         First time derivative of First time derivative of finite element node 4 (number of elements = 1; element order = 5) rotational displacement in Y, rad/s/s
         48   -3.734371172609E-003                                                     T               2         First time derivative of First time derivative of finite element node 4 (number of elements = 1; element order = 5) rotational displacement in Z, rad/s/s
         49   -3.569035013219E+000                                                     T               2         First time derivative of First time derivative of finite element node 5 (number of elements = 1; element order = 5) translational displacement in X, m/s/s
         50    4.030823723159E-001                                                     T               2         First time derivative of First time derivative of finite element node 5 (number of elements = 1; element order = 5) translational displacement in Y, m/s/s
         51   -8.868240163302E+001                                                     T               2         First time derivative of First time derivative of finite element node 5 (number of elements = 1; element order = 5) translational displacement in Z, m/s/s
         52   -1.421830627504E-002                                                     T               2         First time derivative of First time derivative of finite element node 5 (number of elements = 1; element order = 5) rotational displacement in X, rad/s/s
         53    8.756898778560E-002                                                     T               2         First time derivative of First time derivative of finite element node 5 (number of elements = 1; element order = 5) rotational displacement in Y, rad/s/s
         54   -7.879763272812E-003                                                     T               2         First time derivative of First time derivative of finite element node 5 (number of elements = 1; element order = 5) rotational displacement in Z, rad/s/s
         55   -3.004735976862E+000                                                     T               2         First time derivative of First time derivative of finite element node 6 (number of elements = 1; element order = 5) translational displacement in X, m/s/s
         56    4.553206670861E-001                                                     T               2         First time derivative of First time derivative of finite element node 6 (number of elements = 1; element order = 5) translational displacement in Y, m/s/s
         57   -1.001155072601E+002                                                     T               2         First time derivative of First time derivative of finite element node 6 (number of elements = 1; element order = 5) translational displacement in Z, m/s/s
         58   -1.116337894573E-002                                                     T               2         First time derivative of First time derivative of finite element node 6 (number of elements = 1; element order = 5) rotational displacement in X, rad/s/s