
Linearized model: Predictions were generated on 29-Feb-2024 at 16:54:57 using OpenFAST, compiled on Feb 29 2024 at 16:40:53 as a 64-bit application using double precision at commit -128-NOTFOUND
 linked with  NWTC Subroutine Library; ElastoDyn; BeamDyn; ServoDyn

Description from the FAST input file: FAST Certification Test #26: NREL 5.0 MW Baseline Wind Turbine (Onshore)

Simulation information:
   Simulation time:                     0.0000 s
   Rotor Speed:                         1.2671 rad/s
   Azimuth:                             0.0000 rad
   Wind Speed:                          0.0000 m/s
   Number of continuous states:        60
   Number of discrete states:           0
   Number of constraint states:         0
   Number of inputs:                    0
   Number of outputs:                  12
   Jacobians included in this file?    No

Order of continuous states:
   Row/Column Operating Point                                                   Rotating Frame? Derivative Order Description
   ---------- ---------------                                                   --------------- ---------------- -----------
          1    2.152683395865E-003                                                     T               2         finite element node 2 (number of elements = 1; element order = 5) translational displacement in X, m
          2    5.217837370245E-003                                                     T               2         finite element node 2 (number of elements = 1; element order = 5) translational displacement in Y, m
          3    6.310467054974E-004                                                     T               2         finite element node 2 (number of elements = 1; element order = 5) translational displacement in Z, m
          4   -1.235828150360E-003                                                     T               2         finite element node 2 (number of elements = 1; element order = 5) rotational displacement in X, rad
          5    5.542040728315E-004                                                     T               2         finite element node 2 (number of elements = 1; element order = 5) rotational displacement in Y, rad
          6    1.177526156047E-005                                                     T               2         finite element node 2 (number of elements = 1; element order = 5) rotational displacement in Z, rad
          7    2.684241067219E-002                                                     T               2         finite element node 3 (number of elements = 1; element order = 5) translational displacement in X, m
          8    5.182560211147E-002                                                     T               2         finite element node 3 (number of elements = 1; element order = 5) translational displacement in Y, m
          9    3.053468711347E-003                                                     T               2         finite element node 3 (number of elements = 1; element order = 5) translational displacement in Z, m
         10   -4.544736968713E-003                                                     T               2         finite element node 3 (number of elements = 1; element order = 5) rotational displacement in X, rad
         11    2.840770476298E-003                                                     T               2         finite element node 3 (number of elements = 1; element order = 5) rotational displacement in Y, rad
         12    1.235659637556E-004                                                     T               2         finite element node 3 (number of elements = 1; element order = 5) rotational displacement in Z, rad
         13    1.155176776517E-001                                                     T               2         finite element node 4 (number of elements = 1; element order = 5) translational displacement in X, m
         14    1.616343639592E-001                                                     T               2         finite element node 4 (number of elements = 1; element order = 5) translational displacement in Y, m
         15    7.342810008163E-003                                                     T               2         finite element node 4 (number of elements = 1; element order = 5) translational displacement in Z, m
         16   -6.978960334609E-003                                                     T               2         finite element node 4 (number of elements = 1; element order = 5) rotational displacement in X, rad
         17    7.240132379157E-003                                                     T               2         finite element node 4 (number of elements = 1; element order = 5) rotational displacement in Y, rad
         18    3.279544953244E-004                                                     T               2         finite element node 4 (number of elements = 1; element order = 5) rotational displacement in Z, rad
         19    2.560801008714E-001                                                     T               2         finite element node 5 (number of elements = 1; element order = 5) translational displacement in X, m
         20    2.756409052455E-001                                                     T               2         finite element node 5 (number of elements = 1; element order = 5) translational displacement in Y, m
         21    1.098877946090E-002                                                     T               2         finite element node 5 (number of elements = 1; element order = 5) translational displacement in Z, m
         22   -7.856667834838E-003                                                     T               2         finite element node 5 (number of elements = 1; element order = 5) rotational displacement in X, rad
         23    1.147945699550E-002                                                     T               2         finite element node 5 (number of elements = 1; element order = 5) rotational displacement in Y, rad
         24    3.967031299783E-004                                                     T               2         finite element node 5 (number of elements = 1; element order = 5) rotational displacement in Z, rad
         25    3.458488296634E-001                                                     T               2         finite element node 6 (number of elements = 1; element order = 5) translational displacement in X, m
         26    3.355264431416E-001                                                     T               2         finite element node 6 (number of elements = 1; element order = 5) translational displacement in Y, m
         27    1.143636828240E-002                                                     T               2         finite element node 6 (number of elements = 1; element order = 5) translational displacement in Z, m
         28   -8.078431914941E-003                                                     T               2         finite element node 6 (number of elements = 1; element order = 5) rotational displacement in X, rad
         29    1.272720480364E-002                                                     T               2         finite element node 6 (number of elements = 1; element order = 5) rotational displacement in Y, rad
         30    3.914285783385E-004                                                     T               2         finite element node 6 (number of elements = 1; element order = 5) rotational displacement in Z, rad
         31    2.883925842946E-004                                                     T               2         First time derivative of finite element node 2 (number of elements = 1; element order = 5) translational displacement in X, m/s
         32   -1.104535057070E+001                                                     T               2         First time derivative of finite element node 2 (number of elements = 1; element order = 5) translational displacement in Y, m/s
         33    6.605276136586E-003                                                     T               2         First time derivative of finite element node 2 (number of elements = 1; element order = 5) translational displacement in Z, m/s
         34    1.265903029913E+000                                                     T               2         First time derivative of finite element node 2 (number of elements = 1; element order = 5) rotational displacement in X, rad/s
         35    1.387778780781E-017                                                     T               2         First time derivative of finite element node 2 (number of elements = 1; element order = 5) rotational displacement in Y, rad/s
         36   -5.527051991675E-002                                                     T               2         First time derivative of finite element node 2 (number of elements = 1; element order = 5) rotational displacement in Z, rad/s
         37    2.864427973700E-003                                                     T               2         First time derivative of finite element node 3 (number of elements = 1; element order = 5) translational displacement in X, m/s
         38   -2.972765189509E+001                                                     T               2         First time derivative of finite element node 3 (number of elements = 1; element order = 5) translational displacement in Y, m/s
         39    6.560618673998E-002                                                     T               2         First time derivative of finite element node 3 (number of elements = 1; element order = 5) translational displacement in Z, m/s
         40    1.265903029913E+000                                                     T               2         First time derivative of finite element node 3 (number of elements = 1; element order = 5) rotational displacement in X, rad/s
         41    1.387778780781E-017                                                     T               2         First time derivative of finite element node 3 (number of elements = 1; element order = 5) rotational displacement in Y, rad/s
         42   -5.527051991675E-002                                                     T               2         First time derivative of finite element node 3 (number of elements = 1; element order = 5) rotational displacement in Z, rad/s
         43    8.933615332436E-003                                                     T               2         First time derivative of finite element node 4 (number of elements = 1; element order = 5) translational displacement in X, m/s
         44   -5.194412253113E+001                                                     T               2         First time derivative of finite element node 4 (number of elements = 1; element order = 5) translational displacement in Y, m/s
         45    2.046134310740E-001                                                     T               2         First time derivative of finite element node 4 (number of elements = 1; element order = 5) translational displacement in Z, m/s
         46    1.265903029913E+000                                                     T               2         First time derivative of finite element node 4 (number of elements = 1; element order = 5) rotational displacement in X, rad/s
         47    1.387778780781E-017                                                     T               2         First time derivative of finite element node 4 (number of elements = 1; element order = 5) rotational displacement in Y, rad/s
         48   -5.527051991675E-002                                                     T               2         First time derivative of finite element node 4 (number of elements = 1; element order = 5) rotational displacement in Z, rad/s
         49    1.523481614324E-002                                                     T               2         First time derivative of finite element node 5 (number of elements = 1; element order = 5) translational displacement in X, m/s
         50   -7.063437709209E+001                                                     T               2         First time derivative of finite element node 5 (number of elements = 1; element order = 5) translational displacement in Y, m/s
         51    3.489346571183E-001                                                     T               2         First time derivative of finite element node 5 (number of elements = 1; element order = 5) translational displacement in Z, m/s
         52    1.265903029913E+000                                                     T               2         First time derivative of finite element node 5 (number of elements = 1; element order = 5) rotational displacement in X, rad/s
         53    1.387778780781E-017                                                     T               2         First time derivative of finite element node 5 (number of elements = 1; element order = 5) rotational displacement in Y, rad/s
         54   -5.527051991675E-002                                                     T               2         First time derivative of finite element node 5 (number of elements = 1; element order = 5) rotational displacement in Z, rad/s
         55    1.854472095825E-002                                                     T               2         First time derivative of finite element node 6 (number of elements = 1; element order = 5) translational displacement in X, m/s
         56   -7.978548346241E+001                                                     T               2         First time derivative of finite element node 6 (number of elements = 1; element order = 5) translational displacement in Y, m/s
         57    4.247439409889E-001                                                     T               2         First time derivative of finite element node 6 (number of elements = 1; element order = 5) translational displacement in Z, m/s
         58    1.265903029913E+000                                                     T               2         First time derivative of finite element node 6 (number of elements = 1; element order = 5) rotational displacement in X, rad/s
         59    1.387778780781E-017                                                     T               2         First time derivative of finite element node 6 (number of elements = 1; element order = 5) rotational displacement in Y, rad/s
         60   -5.527051991675E-002                                                     T               2         First time derivative of finite element node 6 (number of elements = 1; element order = 5) rotational displacement in Z, rad/s

Order of continuous state derivatives:
   Row/Column Operating Point                                                   Rotating Frame? Derivative Order Description
   ---------- ---------------                                                   --------------- ---------------- -----------
          1    2.883925842946E-004                                                     T               2         First time derivative of finite element node 2 (number of elements = 1; element order = 5) translational displacement in X, m/s
          2   -1.104535057070E+001                                                     T               2         First time derivative of finite element node 2 (number of elements = 1; element order = 5) translational displacement in Y, m/s
          3    6.605276136586E-003                                                     T               2         First time derivative of finite element node 2 (number of elements = 1; element order = 5) translational displacement in Z, m/s
          4    1.265903029913E+000                                                     T               2         First time derivative of finite element node 2 (number of elements = 1; element order = 5) rotational displacement in X, rad/s
          5    1.387778780781E-017                                                     T               2         First time derivative of finite element node 2 (number of elements = 1; element order = 5) rotational displacement in Y, rad/s
          6   -5.527051991675E-002                                                     T               2         First time derivative of finite element node 2 (number of elements = 1; element order = 5) rotational displacement in Z, rad/s
          7    2.864427973700E-003                                                     T               2         First time derivative of finite element node 3 (number of elements = 1; element order = 5) translational displacement in X, m/s
          8   -2.972765189509E+001                                                     T               2         First time derivative of finite element node 3 (number of elements = 1; element order = 5) translational displacement in Y, m/s
          9    6.560618673998E-002                                                     T               2         First time derivative of finite element node 3 (number of elements = 1; element order = 5) translational displacement in Z, m/s
         10    1.265903029913E+000                                                     T               2         First time derivative of finite element node 3 (number of elements = 1; element order = 5) rotational displacement in X, rad/s
         11    1.387778780781E-017                                                     T               2         First time derivative of finite element node 3 (number of elements = 1; element order = 5) rotational displacement in Y, rad/s
         12   -5.527051991675E-002                                                     T               2         First time derivative of finite element node 3 (number of elements = 1; element order = 5) rotational displacement in Z, rad/s
         13    8.933615332436E-003                                                     T               2         First time derivative of finite element node 4 (number of elements = 1; element order = 5) translational displacement in X, m/s
         14   -5.194412253113E+001                                                     T               2         First time derivative of finite element node 4 (number of elements = 1; element order = 5) translational displacement in Y, m/s
         15    2.046134310740E-001                                                     T               2         First time derivative of finite element node 4 (number of elements = 1; element order = 5) translational displacement in Z, m/s
         16    1.265903029913E+000                                                     T               2         First time derivative of finite element node 4 (number of elements = 1; element order = 5) rotational displacement in X, rad/s
         17    1.387778780781E-017                                                     T               2         First time derivative of finite element node 4 (number of elements = 1; element order = 5) rotational displacement in Y, rad/s
         18   -5.527051991675E-002                                                     T               2         First time derivative of finite element node 4 (number of elements = 1; element order = 5) rotational displacement in Z, rad/s
         19    1.523481614324E-002                                                     T               2         First time derivative of finite element node 5 (number of elements = 1; element order = 5) translational displacement in X, m/s
         20   -7.063437709209E+001                                                     T               2         First time derivative of finite element node 5 (number of elements = 1; element order = 5) translational displacement in Y, m/s
         21    3.489346571183E-001                                                     T               2         First time derivative of finite element node 5 (number of elements = 1; element order = 5) translational displacement in Z, m/s
         22    1.265903029913E+000                                                     T               2         First time derivative of finite element node 5 (number of elements = 1; element order = 5) rotational displacement in X, rad/s
         23    1.387778780781E-017                                                     T               2         First time derivative of finite element node 5 (number of elements = 1; element order = 5) rotational displacement in Y, rad/s
         24   -5.527051991675E-002                                                     T               2         First time derivative of finite element node 5 (number of elements = 1; element order = 5) rotational displacement in Z, rad/s
         25    1.854472095825E-002                                                     T               2         First time derivative of finite element node 6 (number of elements = 1; element order = 5) translational displacement in X, m/s
         26   -7.978548346241E+001                                                     T               2         First time derivative of finite element node 6 (number of elements = 1; element order = 5) translational displacement in Y, m/s
         27    4.247439409889E-001                                                     T               2         First time derivative of finite element node 6 (number of elements = 1; element order = 5) translational displacement in Z, m/s
         28    1.265903029913E+000                                                     T               2         First time derivative of finite element node 6 (number of elements = 1; element order = 5) rotational displacement in X, rad/s
         29    1.387778780781E-017                                                     T               2         First time derivative of finite element node 6 (number of elements = 1; element order = 5) rotational displacement in Y, rad/s
         30   -5.527051991675E-002                                                     T               2         First time derivative of finite element node 6 (number of elements = 1; element order = 5) rotational displacement in Z, rad/s
         31   -5.896061186985E-001                                                     T               2         First time derivative of First time derivative of finite element node 2 (number of elements = 1; element order = 5) translational displacement in X, m/s/s
         32   -3.131089155993E-002                                                     T               2         First time derivative of First time derivative of finite element node 2 (number of elements = 1; element order = 5) translational displacement in Y, m/s/s
         33   -1.400132952912E+001                                                     T               2         First time derivative of First time derivative of finite element node 2 (number of elements = 1; element order = 5) translational displacement in Z, m/s/s
         34    4.270212668164E-005                                                     T               2         First time derivative of First time derivative of finite element node 2 (number of elements = 1; element order = 5) rotational displacement in X, rad/s/s
         35   -4.612175814708E-003                                                     T               2         First time derivative of First time derivative of finite element node 2 (number of elements = 1; element order = 5) rotational displacement in Y, rad/s/s
         36    5.405721318166E-003                                                     T               2         First time derivative of First time derivative of finite element node 2 (number of elements = 1; element order = 5) rotational displacement in Z, rad/s/s
         37   -1.657846278733E+000                                                     T               2         First time derivative of First time derivative of finite element node 3 (number of elements = 1; element order = 5) translational displacement in X, m/s/s
         38   -6.696914786989E-002                                                     T               2         First time derivative of First time derivative of finite element node 3 (number of elements = 1; element order = 5) translational displacement in Y, m/s/s
         39   -3.761887892915E+001                                                     T               2         First time derivative of First time derivative of finite element node 3 (number of elements = 1; element order = 5) translational displacement in Z, m/s/s
         40    5.177169961805E-005                                                     T               2         First time derivative of First time derivative of finite element node 3 (number of elements = 1; element order = 5) rotational displacement in X, rad/s/s
         41    3.095221736376E-003                                                     T               2         First time derivative of First time derivative of finite element node 3 (number of elements = 1; element order = 5) rotational displacement in Y, rad/s/s
         42   -3.987731942067E-003                                                     T               2         First time derivative of First time derivative of finite element node 3 (number of elements = 1; element order = 5) rotational displacement in Z, rad/s/s
         43   -2.855580853366E+000                                                     T               2         First time derivative of First time derivative of finite element node 4 (number of elements = 1; element order = 5) translational displacement in X, m/s/s
         44   -2.764293460669E-001                                                     T               2         First time derivative of First time derivative of finite element node 4 (number of elements = 1; element order = 5) translational displacement in Y, m/s/s
         45   -6.577022663177E+001                                                     T               2         First time derivative of First time derivative of finite element node 4 (number of elements = 1; element order = 5) translational displacement in Z, m/s/s
         46   -1.393046105581E-004                                                     T               2         First time derivative of First time derivative of finite element node 4 (number of elements = 1; element order = 5) rotational displacement in X, rad/s/s
         47   -2.587098562993E-003                                                     T               2         First time derivative of First time derivative of finite element node 4 (number of elements = 1; element order = 5) rotational displacement in Y, rad/s/s
         48    4.328315579969E-003                                                     T               2         First time derivative of First time derivative of finite element node 4 (number of elements = 1; element order = 5) rotational displacement in Z, rad/s/s
         49   -3.925718870811E+000                                                     T               2         First time derivative of First time derivative of finite element node 5 (number of elements = 1; element order = 5) translational displacement in X, m/s/s
         50   -4.186995231795E-001                                                     T               2         First time derivative of First time derivative of finite element node 5 (number of elements = 1; element order = 5) translational displacement in Y, m/s/s
         51   -8.939651744784E+001                                                     T               2         First time derivative of First time derivative of finite element node 5 (number of elements = 1; element order = 5) translational displacement in Z, m/s/s
         52    3.256526833350E-004                                                     T               2         First time derivative of First time derivative of finite element node 5 (number of elements = 1; element order = 5) rotational displacement in X, rad/s/s
         53    7.161609847572E-003                                                     T               2         First time derivative of First time derivative of finite element node 5 (number of elements = 1; element order = 5) rotational displacement in Y, rad/s/s
         54   -5.447355929696E-003                                                     T               2         First time derivative of First time derivative of finite element node 5 (number of elements = 1; element order = 5) rotational displacement in Z, rad/s/s
         55   -4.324423398778E+000                                                     T               2         First time derivative of First time derivative of finite element node 6 (number of elements = 1; element order = 5) translational displacement in X, m/s/s
         56   -6.324780740543E-001                                                     T               2         First time derivative of First time derivative of finite element node 6 (number of elements = 1; element order = 5) translational displacement in Y, m/s/s
         57   -1.010783233443E+002                                                     T               2         First time derivative of First time derivative of finite element node 6 (number of elements = 1; element order = 5) translational displacement in Z, m/s/s
         58   -4.265993646949E-004                                                     T               2         First time derivative of First time derivative of finite element node 6 (number of elements = 1; element order = 5) rotational displacement in X, rad/s/s