
FAST Summary File

Predictions were generated on 06-Mar-2024 at 00:17:41 using OpenFAST, compiled on Mar  6 2024 at 00:00:41 as a 64-bit application using double precision at commit -128-NOTFOUND
  run with
    NWTC Subroutine Library
    ElastoDyn
    SubDyn
Description from the FAST input file: 
  FAST Certification Test #19: NREL 5.0 MW Baseline Wind Turbine with OC3 Monopile RF Configuration, for use in offshore analysis

Interpolation order for input/output time histories: 2 (quadratic)
Number of correction iterations:  0
Number of rows in Jacobian matrix used for coupling ElastoDyn, SubDyn, HydroDyn, OrcaFlex, ExtPtfm_MCKF, and/or BeamDyn:     12


   Requested Time Steps  
  -------------------------------------------------
  Component          Time Step (s)    Subcycles (-)
  -----------------  ---------------  -------------
  FAST (glue code)    5.000E-03
  ElastoDyn           5.000E-03              1
  SubDyn              5.000E-03              1
  FAST output files   5.000E-02             10^-1


   Requested Channels in FAST Output File(s)  
  --------------------------------------------
  Number  Name                  Units                 Generated by
  ------  --------------------  --------------------  ------------
       1  Time                  (s)                   OpenFAST
       2  OoPDefl1              (m)                   ElastoDyn
       3  IPDefl1               (m)                   ElastoDyn
       4  TwstDefl1             (deg)                 ElastoDyn
       5  BldPitch1             (deg)                 ElastoDyn
       6  Azimuth               (deg)                 ElastoDyn
       7  RotSpeed              (rpm)                 ElastoDyn
       8  GenSpeed              (rpm)                 ElastoDyn
       9  TwHt1TPxi             (m)                   ElastoDyn
      10  TwHt1TPyi             (m)                   ElastoDyn
      11  TTDspTwst             (deg)                 ElastoDyn
      12  PtfmSurge             (m)                   ElastoDyn
      13  PtfmSway              (m)                   ElastoDyn
      14  PtfmRoll              (deg)                 ElastoDyn
      15  PtfmPitch             (deg)                 ElastoDyn
      16  Spn2MLxb1             (kN-m)                ElastoDyn
      17  Spn2MLyb1             (kN-m)                ElastoDyn
      18  RootFxc1              (kN)                  ElastoDyn
      19  RootFyc1              (kN)                  ElastoDyn
      20  RootFzc1              (kN)                  ElastoDyn
      21  RootMxc1              (kN-m)                ElastoDyn
      22  RootMyc1              (kN-m)                ElastoDyn
      23  RootMzc1              (kN-m)                ElastoDyn
      24  RotTorq               (kN-m)                ElastoDyn
      25  LSSGagMya             (kN-m)                ElastoDyn
      26  LSSGagMza             (kN-m)                ElastoDyn
      27  YawBrFxp              (kN)                  ElastoDyn
      28  YawBrFyp              (kN)                  ElastoDyn
      29  YawBrFzp              (kN)                  ElastoDyn
      30  YawBrMxp              (kN-m)                ElastoDyn
      31  YawBrMyp              (kN-m)                ElastoDyn
      32  YawBrMzp              (kN-m)                ElastoDyn
      33  M2N1MKxe              (N*m)                 SubDyn
      34  M2N1MKye              (N*m)                 SubDyn
      35  M1N1MKxe              (N*m)                 SubDyn
      36  M1N1MKye              (N*m)                 SubDyn
      37  -ReactFXss            (N)                   SubDyn
      38  -ReactFYss            (N)                   SubDyn
      39  -ReactFZss            (N)                   SubDyn
      40  -ReactMXss            (N*m)                 SubDyn
      41  -ReactMYss            (N*m)                 SubDyn
      42  -ReactMZss            (N*m)                 SubDyn
