
Linearized model: Predictions were generated on 29-Feb-2024 at 16:54:56 using OpenFAST, compiled on Feb 29 2024 at 16:40:53 as a 64-bit application using double precision at commit -128-NOTFOUND
 linked with  NWTC Subroutine Library; ElastoDyn; InflowWind; AeroDyn; ServoDyn

Description from the FAST input file: NREL 5.0 MW Baseline Wind Turbine (Onshore), Linearization with AD15 + ED

Simulation information:
   Simulation time:                     1.0000 s
   Rotor Speed:                         1.2799 rad/s
   Azimuth:                             1.2699 rad
   Wind Speed:                          8.0000 m/s
   Number of continuous states:       260
   Number of discrete states:           0
   Number of constraint states:         0
   Number of inputs:                   69
   Number of outputs:                  38
   Jacobians included in this file?    No

Order of continuous states:
   Row/Column Operating Point                     Rotating Frame? Derivative Order Description
   ---------- ---------------                     --------------- ---------------- -----------
          1    2.068E-01                                 F               2         ED 1st tower fore-aft bending mode DOF (internal DOF index = DOF_TFA1), m
          2   -5.083E-03                                 F               2         ED 1st tower side-to-side bending mode DOF (internal DOF index = DOF_TSS1), m
          3   -5.797E-05                                 F               2         ED 2nd tower fore-aft bending mode DOF (internal DOF index = DOF_TFA2), m
          4    1.751E-05                                 F               2         ED 2nd tower side-to-side bending mode DOF (internal DOF index = DOF_TSS2), m
          5    4.931E-05                                 F               2         ED Nacelle yaw DOF (internal DOF index = DOF_Yaw), rad
          6    5.982E+00                                 F               2         ED Variable speed generator DOF (internal DOF index = DOF_GeAz), rad
          7    3.725E-05                                 F               2         ED Drivetrain rotational-flexibility DOF (internal DOF index = DOF_DrTr), rad
          8    3.820E+00                                 T               2         ED 1st flapwise bending-mode DOF of blade 1 (internal DOF index = DOF_BF(1,1)), m
          9    4.034E+00                                 T               2         ED 1st flapwise bending-mode DOF of blade 2 (internal DOF index = DOF_BF(2,1)), m
         10    3.642E+00                                 T               2         ED 1st flapwise bending-mode DOF of blade 3 (internal DOF index = DOF_BF(3,1)), m
         11   -1.676E-01                                 T               2         ED 1st edgewise bending-mode DOF of blade 1 (internal DOF index = DOF_BE(1,1)), m
         12    5.844E-01                                 T               2         ED 1st edgewise bending-mode DOF of blade 2 (internal DOF index = DOF_BE(2,1)), m
         13    1.957E-01                                 T               2         ED 1st edgewise bending-mode DOF of blade 3 (internal DOF index = DOF_BE(3,1)), m
         14    5.164E-02                                 T               2         ED 2nd flapwise bending-mode DOF of blade 1 (internal DOF index = DOF_BF(1,2)), m
         15    1.776E-01                                 T               2         ED 2nd flapwise bending-mode DOF of blade 2 (internal DOF index = DOF_BF(2,2)), m
         16    1.379E-01                                 T               2         ED 2nd flapwise bending-mode DOF of blade 3 (internal DOF index = DOF_BF(3,2)), m
         17    4.691E-01                                 F               2         ED First time derivative of 1st tower fore-aft bending mode DOF (internal DOF index = DOF_TFA1), m/s
         18    1.870E-02                                 F               2         ED First time derivative of 1st tower side-to-side bending mode DOF (internal DOF index = DOF_TSS1), m/s
         19    1.163E-03                                 F               2         ED First time derivative of 2nd tower fore-aft bending mode DOF (internal DOF index = DOF_TFA2), m/s
         20    1.145E-04                                 F               2         ED First time derivative of 2nd tower side-to-side bending mode DOF (internal DOF index = DOF_TSS2), m/s
         21   -2.165E-04                                 F               2         ED First time derivative of Nacelle yaw DOF (internal DOF index = DOF_Yaw), rad/s
         22    1.277E+00                                 F               2         ED First time derivative of Variable speed generator DOF (internal DOF index = DOF_GeAz), rad/s
         23    2.510E-03                                 F               2         ED First time derivative of Drivetrain rotational-flexibility DOF (internal DOF index = DOF_DrTr), rad/s
         24   -3.622E-01                                 T               2         ED First time derivative of 1st flapwise bending-mode DOF of blade 1 (internal DOF index = DOF_BF(1,1)), m/s
         25   -1.203E+00                                 T               2         ED First time derivative of 1st flapwise bending-mode DOF of blade 2 (internal DOF index = DOF_BF(2,1)), m/s
         26   -1.623E+00                                 T               2         ED First time derivative of 1st flapwise bending-mode DOF of blade 3 (internal DOF index = DOF_BF(3,1)), m/s
         27    1.695E-01                                 T               2         ED First time derivative of 1st edgewise bending-mode DOF of blade 1 (internal DOF index = DOF_BE(1,1)), m/s
         28   -1.282E+00                                 T               2         ED First time derivative of 1st edgewise bending-mode DOF of blade 2 (internal DOF index = DOF_BE(2,1)), m/s
         29    3.981E-01                                 T               2         ED First time derivative of 1st edgewise bending-mode DOF of blade 3 (internal DOF index = DOF_BE(3,1)), m/s
         30   -1.558E-01                                 T               2         ED First time derivative of 2nd flapwise bending-mode DOF of blade 1 (internal DOF index = DOF_BF(1,2)), m/s
         31   -4.861E-01                                 T               2         ED First time derivative of 2nd flapwise bending-mode DOF of blade 2 (internal DOF index = DOF_BF(2,2)), m/s
         32   -2.083E-01                                 T               2         ED First time derivative of 2nd flapwise bending-mode DOF of blade 3 (internal DOF index = DOF_BF(3,2)), m/s
         33   -7.915E+00                                 T               2         AD vind (axial) at blade 1, node 1, m/s
         34    0.000E+00                                 T               2         AD vind (tangential) at blade 1, node 1, m/s
         35    0.000E+00                                 T               2         AD vind (axial) at blade 1, node 2, m/s
         36    0.000E+00                                 T               2         AD vind (tangential) at blade 1, node 2, m/s
         37    0.000E+00                                 T               2         AD vind (axial) at blade 1, node 3, m/s
         38    0.000E+00                                 T               2         AD vind (tangential) at blade 1, node 3, m/s
         39    0.000E+00                                 T               2         AD vind (axial) at blade 1, node 4, m/s
         40    0.000E+00                                 T               2         AD vind (tangential) at blade 1, node 4, m/s
         41   -2.218E+00                                 T               2         AD vind (axial) at blade 1, node 5, m/s
         42    8.015E-01                                 T               2         AD vind (tangential) at blade 1, node 5, m/s
         43   -2.072E+00                                 T               2         AD vind (axial) at blade 1, node 6, m/s
         44    5.830E-01                                 T               2         AD vind (tangential) at blade 1, node 6, m/s
         45   -1.839E+00                                 T               2         AD vind (axial) at blade 1, node 7, m/s
         46    4.311E-01                                 T               2         AD vind (tangential) at blade 1, node 7, m/s
         47   -1.868E+00                                 T               2         AD vind (axial) at blade 1, node 8, m/s
         48    3.614E-01                                 T               2         AD vind (tangential) at blade 1, node 8, m/s
         49   -2.270E+00                                 T               2         AD vind (axial) at blade 1, node 9, m/s
         50    3.478E-01                                 T               2         AD vind (tangential) at blade 1, node 9, m/s
         51   -2.435E+00                                 T               2         AD vind (axial) at blade 1, node 10, m/s
         52    3.128E-01                                 T               2         AD vind (tangential) at blade 1, node 10, m/s
         53   -3.016E+00                                 T               2         AD vind (axial) at blade 1, node 11, m/s
         54    3.007E-01                                 T               2         AD vind (tangential) at blade 1, node 11, m/s
         55   -3.447E+00                                 T               2         AD vind (axial) at blade 1, node 12, m/s
         56    2.785E-01                                 T               2         AD vind (tangential) at blade 1, node 12, m/s
         57   -3.433E+00                                 T               2         AD vind (axial) at blade 1, node 13, m/s
         58    2.459E-01                                 T               2         AD vind (tangential) at blade 1, node 13, m/s
         59   -3.711E+00                                 T               2         AD vind (axial) at blade 1, node 14, m/s
         60    2.268E-01                                 T               2         AD vind (tangential) at blade 1, node 14, m/s
         61   -4.048E+00                                 T               2         AD vind (axial) at blade 1, node 15, m/s
         62    2.085E-01                                 T               2         AD vind (tangential) at blade 1, node 15, m/s
         63   -4.235E+00                                 T               2         AD vind (axial) at blade 1, node 16, m/s
         64    1.991E-01                                 T               2         AD vind (tangential) at blade 1, node 16, m/s
         65   -4.242E+00                                 T               2         AD vind (axial) at blade 1, node 17, m/s
         66    1.927E-01                                 T               2         AD vind (tangential) at blade 1, node 17, m/s
         67   -3.846E+00                                 T               2         AD vind (axial) at blade 1, node 18, m/s
         68    1.802E-01                                 T               2         AD vind (tangential) at blade 1, node 18, m/s
         69   -6.080E+00                                 T               2         AD vind (axial) at blade 1, node 19, m/s
         70    0.000E+00                                 T               2         AD vind (tangential) at blade 1, node 19, m/s
         71   -7.714E+00                                 T               2         AD vind (axial) at blade 2, node 1, m/s
         72    0.000E+00                                 T               2         AD vind (tangential) at blade 2, node 1, m/s
         73    0.000E+00                                 T               2         AD vind (axial) at blade 2, node 2, m/s
         74    0.000E+00                                 T               2         AD vind (tangential) at blade 2, node 2, m/s
         75    0.000E+00                                 T               2         AD vind (axial) at blade 2, node 3, m/s
         76    0.000E+00                                 T               2         AD vind (tangential) at blade 2, node 3, m/s
         77    0.000E+00                                 T               2         AD vind (axial) at blade 2, node 4, m/s
         78    0.000E+00                                 T               2         AD vind (tangential) at blade 2, node 4, m/s
         79   -2.194E+00                                 T               2         AD vind (axial) at blade 2, node 5, m/s
         80    7.688E-01                                 T               2         AD vind (tangential) at blade 2, node 5, m/s
         81   -2.048E+00                                 T               2         AD vind (axial) at blade 2, node 6, m/s
         82    5.655E-01                                 T               2         AD vind (tangential) at blade 2, node 6, m/s
         83   -1.823E+00                                 T               2         AD vind (axial) at blade 2, node 7, m/s
         84    4.214E-01                                 T               2         AD vind (tangential) at blade 2, node 7, m/s
         85   -1.861E+00                                 T               2         AD vind (axial) at blade 2, node 8, m/s
         86    3.562E-01                                 T               2         AD vind (tangential) at blade 2, node 8, m/s
         87   -2.276E+00                                 T               2         AD vind (axial) at blade 2, node 9, m/s
         88    3.458E-01                                 T               2         AD vind (tangential) at blade 2, node 9, m/s
         89   -2.446E+00                                 T               2         AD vind (axial) at blade 2, node 10, m/s
         90    3.128E-01                                 T               2         AD vind (tangential) at blade 2, node 10, m/s
         91   -3.031E+00                                 T               2         AD vind (axial) at blade 2, node 11, m/s
         92    3.025E-01                                 T               2         AD vind (tangential) at blade 2, node 11, m/s
         93   -3.458E+00                                 T               2         AD vind (axial) at blade 2, node 12, m/s
         94    2.818E-01                                 T               2         AD vind (tangential) at blade 2, node 12, m/s
         95   -3.427E+00                                 T               2         AD vind (axial) at blade 2, node 13, m/s
         96    2.505E-01                                 T               2         AD vind (tangential) at blade 2, node 13, m/s
         97   -3.680E+00                                 T               2         AD vind (axial) at blade 2, node 14, m/s
         98    2.328E-01                                 T               2         AD vind (tangential) at blade 2, node 14, m/s
         99   -3.935E+00                                 T               2         AD vind (axial) at blade 2, node 15, m/s
        100    2.172E-01                                 T               2         AD vind (tangential) at blade 2, node 15, m/s
        101   -3.975E+00                                 T               2         AD vind (axial) at blade 2, node 16, m/s
        102    2.107E-01                                 T               2         AD vind (tangential) at blade 2, node 16, m/s
        103   -3.923E+00                                 T               2         AD vind (axial) at blade 2, node 17, m/s
        104    1.873E-01                                 T               2         AD vind (tangential) at blade 2, node 17, m/s
        105   -3.569E+00                                 T               2         AD vind (axial) at blade 2, node 18, m/s
        106    1.714E-01                                 T               2         AD vind (tangential) at blade 2, node 18, m/s
        107   -6.370E+00                                 T               2         AD vind (axial) at blade 2, node 19, m/s
        108    0.000E+00                                 T               2         AD vind (tangential) at blade 2, node 19, m/s
        109   -7.847E+00                                 T               2         AD vind (axial) at blade 3, node 1, m/s
        110    0.000E+00                                 T               2         AD vind (tangential) at blade 3, node 1, m/s
        111    0.000E+00                                 T               2         AD vind (axial) at blade 3, node 2, m/s
        112    0.000E+00                                 T               2         AD vind (tangential) at blade 3, node 2, m/s
        113    0.000E+00                                 T               2         AD vind (axial) at blade 3, node 3, m/s
        114    0.000E+00                                 T               2         AD vind (tangential) at blade 3, node 3, m/s
        115    0.000E+00                                 T               2         AD vind (axial) at blade 3, node 4, m/s
        116    0.000E+00                                 T               2         AD vind (tangential) at blade 3, node 4, m/s
        117   -2.237E+00                                 T               2         AD vind (axial) at blade 3, node 5, m/s
        118    8.526E-01                                 T               2         AD vind (tangential) at blade 3, node 5, m/s
        119   -2.113E+00                                 T               2         AD vind (axial) at blade 3, node 6, m/s
        120    6.154E-01                                 T               2         AD vind (tangential) at blade 3, node 6, m/s
        121   -1.875E+00                                 T               2         AD vind (axial) at blade 3, node 7, m/s
        122    4.511E-01                                 T               2         AD vind (tangential) at blade 3, node 7, m/s
        123   -1.891E+00                                 T               2         AD vind (axial) at blade 3, node 8, m/s
        124    3.741E-01                                 T               2         AD vind (tangential) at blade 3, node 8, m/s
        125   -2.274E+00                                 T               2         AD vind (axial) at blade 3, node 9, m/s
        126    3.560E-01                                 T               2         AD vind (tangential) at blade 3, node 9, m/s
        127   -2.432E+00                                 T               2         AD vind (axial) at blade 3, node 10, m/s
        128    3.189E-01                                 T               2         AD vind (tangential) at blade 3, node 10, m/s
        129   -2.995E+00                                 T               2         AD vind (axial) at blade 3, node 11, m/s
        130    3.058E-01                                 T               2         AD vind (tangential) at blade 3, node 11, m/s
        131   -3.419E+00                                 T               2         AD vind (axial) at blade 3, node 12, m/s
        132    2.831E-01                                 T               2         AD vind (tangential) at blade 3, node 12, m/s
        133   -3.399E+00                                 T               2         AD vind (axial) at blade 3, node 13, m/s
        134    2.502E-01                                 T               2         AD vind (tangential) at blade 3, node 13, m/s
        135   -3.672E+00                                 T               2         AD vind (axial) at blade 3, node 14, m/s
        136    2.315E-01                                 T               2         AD vind (tangential) at blade 3, node 14, m/s
        137   -3.987E+00                                 T               2         AD vind (axial) at blade 3, node 15, m/s
        138    2.145E-01                                 T               2         AD vind (tangential) at blade 3, node 15, m/s
        139   -4.110E+00                                 T               2         AD vind (axial) at blade 3, node 16, m/s
        140    2.068E-01                                 T               2         AD vind (tangential) at blade 3, node 16, m/s
        141   -4.097E+00                                 T               2         AD vind (axial) at blade 3, node 17, m/s
        142    2.023E-01                                 T               2         AD vind (tangential) at blade 3, node 17, m/s
        143   -3.737E+00                                 T               2         AD vind (axial) at blade 3, node 18, m/s
        144    1.715E-01                                 T               2         AD vind (tangential) at blade 3, node 18, m/s
        145   -6.350E+00                                 T               2         AD vind (axial) at blade 3, node 19, m/s
        146    0.000E+00                                 T               2         AD vind (tangential) at blade 3, node 19, m/s
        147   -3.176E+00                                 T               2         AD First time derivative of vind (axial) at blade 1, node 1, m/s/s
        148    0.000E+00                                 T               2         AD First time derivative of vind (tangential) at blade 1, node 1, m/s/s
        149    0.000E+00                                 T               2         AD First time derivative of vind (axial) at blade 1, node 2, m/s/s
        150    0.000E+00                                 T               2         AD First time derivative of vind (tangential) at blade 1, node 2, m/s/s
        151    0.000E+00                                 T               2         AD First time derivative of vind (axial) at blade 1, node 3, m/s/s
        152    0.000E+00                                 T               2         AD First time derivative of vind (tangential) at blade 1, node 3, m/s/s
        153    0.000E+00                                 T               2         AD First time derivative of vind (axial) at blade 1, node 4, m/s/s
        154    0.000E+00                                 T               2         AD First time derivative of vind (tangential) at blade 1, node 4, m/s/s
        155   -8.915E-01                                 T               2         AD First time derivative of vind (axial) at blade 1, node 5, m/s/s
        156    3.239E-01                                 T               2         AD First time derivative of vind (tangential) at blade 1, node 5, m/s/s
        157   -8.352E-01                                 T               2         AD First time derivative of vind (axial) at blade 1, node 6, m/s/s
        158    2.362E-01                                 T               2         AD First time derivative of vind (tangential) at blade 1, node 6, m/s/s
        159   -7.431E-01                                 T               2         AD First time derivative of vind (axial) at blade 1, node 7, m/s/s
        160    1.752E-01                                 T               2         AD First time derivative of vind (tangential) at blade 1, node 7, m/s/s
        161   -7.558E-01                                 T               2         AD First time derivative of vind (axial) at blade 1, node 8, m/s/s
        162    1.473E-01                                 T               2         AD First time derivative of vind (tangential) at blade 1, node 8, m/s/s
        163   -9.174E-01                                 T               2         AD First time derivative of vind (axial) at blade 1, node 9, m/s/s
        164    1.421E-01                                 T               2         AD First time derivative of vind (tangential) at blade 1, node 9, m/s/s
        165   -9.852E-01                                 T               2         AD First time derivative of vind (axial) at blade 1, node 10, m/s/s
        166    1.285E-01                                 T               2         AD First time derivative of vind (tangential) at blade 1, node 10, m/s/s
        167   -1.215E+00                                 T               2         AD First time derivative of vind (axial) at blade 1, node 11, m/s/s
        168    1.245E-01                                 T               2         AD First time derivative of vind (tangential) at blade 1, node 11, m/s/s
        169   -1.388E+00                                 T               2         AD First time derivative of vind (axial) at blade 1, node 12, m/s/s
        170    1.164E-01                                 T               2         AD First time derivative of vind (tangential) at blade 1, node 12, m/s/s
        171   -1.378E+00                                 T               2         AD First time derivative of vind (axial) at blade 1, node 13, m/s/s
        172    1.041E-01                                 T               2         AD First time derivative of vind (tangential) at blade 1, node 13, m/s/s
        173   -1.488E+00                                 T               2         AD First time derivative of vind (axial) at blade 1, node 14, m/s/s
        174    9.757E-02                                 T               2         AD First time derivative of vind (tangential) at blade 1, node 14, m/s/s
        175   -1.612E+00                                 T               2         AD First time derivative of vind (axial) at blade 1, node 15, m/s/s
        176    9.182E-02                                 T               2         AD First time derivative of vind (tangential) at blade 1, node 15, m/s/s
        177   -1.697E+00                                 T               2         AD First time derivative of vind (axial) at blade 1, node 16, m/s/s
        178    8.902E-02                                 T               2         AD First time derivative of vind (tangential) at blade 1, node 16, m/s/s
        179   -1.732E+00                                 T               2         AD First time derivative of vind (axial) at blade 1, node 17, m/s/s
        180    8.743E-02                                 T               2         AD First time derivative of vind (tangential) at blade 1, node 17, m/s/s
        181   -1.631E+00                                 T               2         AD First time derivative of vind (axial) at blade 1, node 18, m/s/s
        182    8.420E-02                                 T               2         AD First time derivative of vind (tangential) at blade 1, node 18, m/s/s
        183   -2.832E+00                                 T               2         AD First time derivative of vind (axial) at blade 1, node 19, m/s/s
        184    0.000E+00                                 T               2         AD First time derivative of vind (tangential) at blade 1, node 19, m/s/s
        185   -3.109E+00                                 T               2         AD First time derivative of vind (axial) at blade 2, node 1, m/s/s
        186    0.000E+00                                 T               2         AD First time derivative of vind (tangential) at blade 2, node 1, m/s/s
        187    0.000E+00                                 T               2         AD First time derivative of vind (axial) at blade 2, node 2, m/s/s
        188    0.000E+00                                 T               2         AD First time derivative of vind (tangential) at blade 2, node 2, m/s/s
        189    0.000E+00                                 T               2         AD First time derivative of vind (axial) at blade 2, node 3, m/s/s
        190    0.000E+00                                 T               2         AD First time derivative of vind (tangential) at blade 2, node 3, m/s/s
        191    0.000E+00                                 T               2         AD First time derivative of vind (axial) at blade 2, node 4, m/s/s
        192    0.000E+00                                 T               2         AD First time derivative of vind (tangential) at blade 2, node 4, m/s/s
        193   -8.860E-01                                 T               2         AD First time derivative of vind (axial) at blade 2, node 5, m/s/s
        194    3.118E-01                                 T               2         AD First time derivative of vind (tangential) at blade 2, node 5, m/s/s
        195   -8.275E-01                                 T               2         AD First time derivative of vind (axial) at blade 2, node 6, m/s/s
        196    2.294E-01                                 T               2         AD First time derivative of vind (tangential) at blade 2, node 6, m/s/s
        197   -7.369E-01                                 T               2         AD First time derivative of vind (axial) at blade 2, node 7, m/s/s
        198    1.711E-01                                 T               2         AD First time derivative of vind (tangential) at blade 2, node 7, m/s/s
        199   -7.524E-01                                 T               2         AD First time derivative of vind (axial) at blade 2, node 8, m/s/s
        200    1.448E-01                                 T               2         AD First time derivative of vind (tangential) at blade 2, node 8, m/s/s
        201   -9.190E-01                                 T               2         AD First time derivative of vind (axial) at blade 2, node 9, m/s/s
        202    1.406E-01                                 T               2         AD First time derivative of vind (tangential) at blade 2, node 9, m/s/s
        203   -9.884E-01                                 T               2         AD First time derivative of vind (axial) at blade 2, node 10, m/s/s
        204    1.276E-01                                 T               2         AD First time derivative of vind (tangential) at blade 2, node 10, m/s/s